LAMMPS data file via write_data, version 29 Aug 2024, timestep = 1000000, units = real

512 atoms
1 atom types

-5.264188199768846 25.256188199771394 xlo xhi
-5.241188199768846 25.279188199771394 ylo yhi
-5.260688199768843 25.259688199771396 zlo zhi

Masses

1 39.948

Pair Coeffs # lj/cut

1 0.238 3.405

Atoms # atomic

464 1 -4.300051355066986 -1.2321235736527054 -2.994761129179396 1 1 2
364 1 0.6705765799839263 -4.23251156787277 0.553177877157704 0 0 0
455 1 -2.9382099860925908 -3.0615713830791145 0.21645083839042803 1 0 2
334 1 0.6614862474898935 -1.1171990686280502 -5.056137415386775 -1 -1 0
392 1 -5.251729956169619 -4.565962391510141 -3.2498905517050822 1 0 1
297 1 -1.9200944276047736 -3.461697529643635 -4.489020313947915 1 0 2
318 1 1.1297012010598824 -5.208545743892698 -2.7612330991207563 -1 -1 0
288 1 5.440767470072911 -5.174728033412107 -2.364389555351772 -2 0 1
235 1 6.7428960412404955 0.6990471332910433 -1.0877930054544271 0 1 0
106 1 3.6232992024397213 -1.7225312202358753 -2.4461392054076514 2 -1 0
92 1 0.9084880895919998 -0.5604937189772246 0.0774494807664154 0 2 1
287 1 7.931928044418463 -2.1937567987826485 -3.9395396155555606 -1 -1 1
151 1 11.837517552981051 -4.0467194325383 -5.055929899020577 -2 0 0
323 1 11.307289565589066 0.6637174016061307 -2.115032776222648 -1 0 2
147 1 9.670159243561276 -1.840122265210704 -0.3769663426023717 0 0 -1
361 1 8.043844287939232 -5.092796680108232 0.6783602646928678 1 1 1
427 1 13.55617736831002 -2.527439271082044 -2.680849535796549 -1 0 0
54 1 17.686038082338047 -1.7731424226894141 -1.3969889563477087 0 1 1
11 1 14.835640538902364 0.42519959530023943 -1.5807304446117045 1 0 0
285 1 23.426766225152505 -3.1671104343577574 0.0895194527584784 -1 0 0
208 1 22.255070981990198 -1.5467251405927152 -2.789645024976842 1 2 0
399 1 -3.447040424084652 4.208626416362078 -4.2555252030386646 0 0 1
51 1 -0.3631403357176959 4.500578703041095 -1.67811273535783 -1 1 2
77 1 -4.378286267717956 6.532649773091034 -1.7315131124011094 0 1 -1
266 1 -2.1464340846151 1.0714296276489828 0.22807385028812108 -1 0 1
234 1 0.2518707120057355 3.0726774860138573 -4.68876575824639 1 0 1
332 1 3.733273472474064 2.496025078827274 -2.23533113378213 1 0 1
65 1 2.5065752664497287 6.778591163361758 -2.49350429531838 0 0 2
310 1 9.284217766058559 2.863352428226218 -4.48315386565723 -1 1 2
14 1 10.091983167149133 4.690972374087849 -1.4554716741657254 0 -1 0
330 1 11.828981612362796 6.657773250165194 -5.066319525408067 0 -1 2
442 1 16.93208376642103 3.7279786131469166 0.10267425004036508 1 0 0
237 1 15.912932187984499 5.139407038352616 -3.3934651913442258 1 1 0
154 1 17.570024175271026 1.3625570658376507 -4.220000274391331 1 0 -1
462 1 19.595622120482204 1.6307093567249167 -1.2945374530623908 0 0 1
63 1 23.942388144373133 1.1454707951749112 -1.4122052407032037 0 0 -2
388 1 22.363654968374384 3.7833866708890778 -3.669857590259136 -1 1 1
430 1 19.679641692554306 5.203100503522933 -2.26030250928171 -1 1 0
251 1 22.699838570120047 6.150045744692452 -0.3897850778447393 0 0 0
264 1 -1.9392915789250895 7.400333282575231 -4.250270197223544 -1 0 1
352 1 -4.5404294200591435 10.150624082510543 -1.9912725108012643 -1 -1 0
303 1 -2.0811208288467915 9.714398242005908 0.6978825259848096 2 -2 0
68 1 0.4100350416365339 10.802941744006546 -3.206433319016343 -1 0 0
16 1 -2.1157788302407616 13.028697775589233 -1.226170930334662 1 0 2
85 1 5.069635015436138 8.278322600813341 -0.5819411405858985 1 1 2
10 1 1.5842275639461354 8.580346491162109 0.2149300169158609 0 0 -1
236 1 2.289268797442219 12.44420942806386 -0.307390356991746 1 0 -1
497 1 6.109217340860628 11.761073538286318 -2.180732618943971 0 -1 -1
29 1 2.722930025517437 12.349323673349659 -5.1470017561384935 0 0 0
312 1 6.40454549871238 8.306989409151953 -4.2567711673607675 0 2 0
461 1 9.395125668347008 8.1880009714746 -1.9748468492650606 -1 0 -1
417 1 12.628937751598457 7.953564358260982 -0.757052061059304 0 1 1
284 1 10.399129568001158 12.308984922022201 -1.8120258258497433 -1 0 1
325 1 15.547886099689144 8.489353120668403 -2.4440004503741997 -1 1 1
90 1 14.011930785892382 11.500766820589796 -3.992441244027102 -1 0 0
2 1 13.735464039767223 11.792670256835592 0.7447213487940618 1 -1 0
81 1 18.168715597392076 12.005842143416501 -3.7012065826582394 0 1 0
347 1 16.44438444384876 9.457880108293647 0.8065027470845766 0 1 1
457 1 18.151366922593656 8.18514686612486 -5.032884292704568 -1 -2 -1
88 1 19.403203174159614 8.649504002473307 -1.4847142885647313 0 0 0
423 1 21.916321594895255 8.066520709415533 -4.3454426416899095 -2 2 2
326 1 21.8053506727129 11.14957031416116 -1.9726244554729078 -1 0 -1
405 1 19.774657852838377 11.360550331352552 0.7559025087727063 0 0 0
93 1 21.967430829559497 13.057514897854702 -5.22685604590165 0 0 1
35 1 -5.20134054727234 13.688840069770922 -4.102977208585522 -1 -1 -1
245 1 -0.42456154486744335 14.185754759992776 -5.049190635955632 0 1 0
108 1 -2.5210922835295078 16.6264469405188 -3.7448551060555024 2 -1 0
295 1 0.5717378731999307 17.78446241523583 -1.0492225183297 1 -1 0
201 1 3.8657031526797194 15.125206060427598 -1.561890541456198 1 -2 1
112 1 1.9414815021177594 16.895782553562416 -4.363486400451541 0 -1 0
279 1 6.67931048795025 18.047846326670655 -3.165955644341937 -1 1 -1
217 1 6.667757796069818 14.824419568442949 -4.016296026755625 -1 0 -1
214 1 7.654419621087033 14.418115068632968 -0.06966226196386784 -2 -1 2
263 1 9.617923200833022 16.145236699796378 -2.2165016938809483 0 -1 0
320 1 11.452131673708347 14.32713000197398 -4.902326557621503 0 1 -1
488 1 9.73972169767875 18.62978395527649 0.7334700251362288 1 -1 -1
272 1 16.986702400973996 13.188684880784855 -0.4840751516606322 1 -2 -1
300 1 13.942836762002305 14.507940185471913 -1.9751687489998306 0 0 -1
314 1 13.176017726074242 17.38076722694061 -4.146949114404155 0 0 2
336 1 16.88364092568035 16.83302517018144 -3.9440316009415413 0 -2 0
496 1 21.01353515758775 18.924390642820583 -2.7059076803143953 -1 1 1
249 1 20.241943921944213 14.699332083612273 -2.7889701944038805 -2 0 1
290 1 24.19724596867435 18.113464674571066 -4.986344279762793 1 1 1
467 1 21.38645177546888 18.282438314599666 0.8236251475303314 -1 -2 -1
191 1 24.31563851253517 16.214067130425224 -1.4784625370059148 0 -1 2
94 1 -0.21057418031813757 20.833625707200888 -3.40156297636676 -1 0 0
340 1 -2.526323073855411 23.936732285901677 -1.5987307722202264 0 1 0
219 1 -3.346211749554171 19.985393539428312 -2.2518900310457566 0 0 1
47 1 0.5243519657283864 22.49625849962644 0.3160717165862617 1 -2 -1
466 1 3.8791215330300464 19.96949189824417 -1.6995205117408738 0 -1 0
238 1 12.627023960458235 25.001876815050682 -1.492874741044874 0 0 0
357 1 9.207395955577638 24.278915605338856 -2.954907296038016 0 0 1
460 1 7.334601118397787 21.10973953028967 -0.3844710515372679 1 -1 0
216 1 11.393205939848286 21.788698788795415 -0.176767169344096 -1 -2 1
289 1 10.202155058777446 19.711067856327663 -3.423624575237917 0 -1 1
252 1 15.814686839316376 24.078925948803427 -3.4243814410205498 0 0 1
179 1 13.999740397003983 19.221900701841818 -0.6412942134624989 -1 -1 0
482 1 13.86816301316485 21.144184246572074 -4.206049389239616 0 0 0
124 1 18.371318688893627 21.978468592798606 -4.910091475260496 0 -1 2
452 1 17.719813254996136 24.91734500920952 0.0005351186612245028 -1 0 0
506 1 17.855306679306562 20.75935418585888 -0.17126351670661855 0 1 1
473 1 24.9907623412042 23.515020341012846 -0.13840744896505366 -2 -1 0
22 1 21.532084900711 22.984246632610997 -1.2898199442013165 1 1 0
60 1 23.989532323659855 21.916998915600114 -3.8953535700136066 -2 -2 1
211 1 24.798011206454323 19.623076813007295 0.041143722407663404 -1 -1 0
363 1 -0.9666823910257376 -0.8075892974486143 3.161383236193859 2 0 0
454 1 -5.252655905268075 -0.21767653614731675 2.6741979171923074 1 -1 1
306 1 -4.756895955346196 -2.3530375999745234 5.957336879759225 1 0 1
159 1 -0.9487977957046843 -2.851344001324908 6.440303724566375 -1 1 -1
149 1 1.44000361400919 -3.1015303116260338 4.16460392046325 0 1 0
443 1 4.086172149377392 -5.168204202905352 1.7468956178382191 0 2 1
182 1 1.1555287314745861 0.5089837329685825 5.851770261241242 0 -1 0
260 1 4.703115310877726 -2.180773829900106 5.204406200263193 1 0 1
492 1 5.012816285393233 -1.4189854312048369 1.023697829662912 1 -1 0
415 1 7.72929027679575 -3.7337657653060417 4.327228484305931 1 2 2
470 1 11.181583022431415 -2.066530732690735 3.8795076740935217 0 0 -1
333 1 10.489172838530484 -5.038051525010917 6.57985762226965 0 -1 -1
166 1 7.346452536020317 -0.44680993601416397 3.324048466004715 1 -1 1
281 1 8.306956830061994 -0.7328608822952836 6.756581434921299 -1 0 1
143 1 13.991057184639502 -4.262025632164995 5.891152863025526 1 0 0
39 1 14.498841244475244 -0.748870779994566 5.389726546465058 0 1 -1
302 1 13.5170515937414 0.8107477535092098 1.715124586455897 0 2 0
165 1 18.72136006371991 -0.4646040123549655 5.616933539471922 0 0 -1
150 1 19.99509090123697 -3.1927406082369654 1.5089457067853305 0 1 0
164 1 19.173070321483287 0.693145233574394 2.180286822884204 0 1 1
206 1 25.011210567983465 -4.571095306625339 3.321872521890812 0 1 0
104 1 22.247096820003996 -3.060912407349371 4.7109741595765176 0 -1 1
43 1 22.48219291452273 0.6683095535611017 4.84285911131324 -1 1 2
228 1 -3.3308382096816604 0.9680409773400251 5.205491454931963 0 1 0
329 1 -1.9066903769768144 6.12068647860252 1.327378560912473 -1 0 0
91 1 -4.959247974853715 3.75112916546653 2.081587925960465 1 -1 0
349 1 -2.615292460028201 4.5034475399902405 6.945977419201622 2 0 0
97 1 0.37935963058044564 3.8165292723506408 4.416817057787002 0 1 0
342 1 4.725328720781338 1.7520795082624039 5.008423408653384 -1 0 -2
197 1 6.718242534119364 4.856719258566963 1.1132856973774377 -1 2 0
209 1 4.3225268166656985 5.34218289214542 6.164119552426545 0 0 2
360 1 10.314732134965464 1.6944346623631876 1.2392245610469843 -3 2 0
438 1 12.334826429939007 5.424711036172841 6.755793620678144 1 1 1
155 1 11.104568657900632 1.4194144189960243 4.896982663672424 1 0 -1
262 1 13.264612157034584 4.579199431726341 1.258298510681221 0 0 0
183 1 15.734788030030046 6.052222244049961 3.1341942624033647 -2 1 2
451 1 18.615821569554758 3.533785714141734 4.704963266265458 1 0 -1
286 1 14.985947017941484 2.8874934027311756 6.201161503814234 1 0 -1
381 1 15.798438777311464 6.174146017280961 6.79237743530408 0 -1 1
409 1 19.368435681343808 6.334497058061833 1.9163123040119114 -1 0 -1
499 1 21.444306637609117 3.4226429125888256 1.2491470060351137 1 0 2
227 1 22.64199231121983 5.212102389752012 3.7763266367013655 -1 1 -1
33 1 24.40372207531716 5.361043082488326 6.889887727022048 0 0 1
138 1 -4.1170464974076815 10.827014171512921 3.937470165682465 0 -1 0
305 1 -5.185146923311314 7.753146941610716 2.02257320198781 1 1 0
175 1 -0.09878644419098936 7.980047537699216 4.126330915880201 -2 1 1
25 1 -3.3860851046521265 7.895716955631643 6.061297980451288 -1 -2 2
117 1 6.0060032562768395 8.005518680899456 3.8407988289942026 1 -1 2
487 1 3.576595623164584 10.141635244173278 3.104627375317052 -1 -1 0
351 1 8.856353133079404 7.528502624218017 1.5349055003883951 1 0 1
258 1 6.958493670985348 10.952804858498546 2.3279042222996313 -1 0 1
27 1 10.626873474139694 11.075135097711907 1.532835903435109 -1 1 1
383 1 10.881192846641916 9.836349005824465 5.700479127724884 0 0 1
406 1 8.886591292185823 12.92921416819473 4.470973709553959 1 0 1
429 1 12.519005377250998 13.058686497792202 4.223617846327548 0 1 -1
477 1 13.180914616039491 8.971813079600627 2.8819507949199474 0 -1 1
28 1 16.63008179684483 12.042196173385921 4.000250259276464 1 -1 0
494 1 18.759377407827333 7.333731225472166 5.20521625994486 0 -1 1
61 1 14.428597579368496 9.41610029584862 6.246571627803415 1 -2 1
244 1 23.982691602315498 12.472845586660444 0.9551768675167346 -2 -1 1
105 1 20.76999353572324 9.92242774405017 4.291203716404408 1 0 0
95 1 23.692559864759126 13.017845246231921 5.316446941827533 -1 0 -1
162 1 -2.7657666295048227 13.860837982884732 6.785684214779875 1 0 0
66 1 0.012799858026154354 13.499009778270022 2.742384022853714 -2 0 0
247 1 -2.6355430298267937 17.042132374571025 1.2570051731898015 1 -1 1
401 1 0.13417919585367777 17.855325505667007 4.631566211070631 0 0 1
241 1 5.446023066852916 18.219412725526734 1.0807449954054522 1 -1 -1
490 1 2.532747994363822 13.157084048460487 6.060272253247181 1 2 0
122 1 4.50498451796105 13.884044213526007 2.4306617564893567 1 1 -2
254 1 5.532326453950457 15.999781852009406 5.353545451207067 0 -2 0
431 1 11.335189822189552 14.85557789350905 1.3207262180909405 1 0 0
422 1 8.266972380279554 16.48565320623359 3.238477504634467 -1 0 2
456 1 10.712392835930762 18.36722315374571 6.5275082746885005 -2 0 0
44 1 13.05302052011772 17.599384488590243 3.7684245819095077 -1 1 1
414 1 16.15243059762344 17.351984212866647 1.4493548635278786 1 1 -2
121 1 15.523770577055252 15.021179679568725 5.648879342008738 1 0 1
126 1 19.035831233304144 13.891465857743945 6.04147484353919 -1 1 1
348 1 15.520526334253493 18.716532549865526 6.519816209242322 -1 0 -1
434 1 19.25552997890657 15.44167451376839 1.6191205292354724 0 1 -1
317 1 21.98144265693864 16.259110692582205 5.9249847828636595 -2 -1 1
239 1 24.670645646020567 16.78668718313887 3.624180404517766 -1 0 3
218 1 19.769723232182628 18.07075415558903 4.055554258524395 0 -1 1
5 1 -2.6423765761848466 20.847476390118107 1.1844449163654567 -1 -1 1
140 1 -2.1491878900314316 20.44333950029057 4.734965099399581 2 -1 1
353 1 -2.944741234419806 24.335782244049845 5.480759691044644 0 1 -1
45 1 -2.458458193218667 24.566229492841806 1.8599930941039544 -1 1 -1
181 1 4.368723384732748 21.901135507810224 1.5011374275864813 -2 -1 1
163 1 1.4718253694389558 19.532024054186124 2.0622130612557137 0 0 0
389 1 0.9967576870839121 22.87372972080151 3.9835543569525385 -1 -1 0
87 1 3.7072942012780086 20.420202746397145 5.080584410353919 0 -1 0
23 1 4.395927457121211 24.24141530138503 5.742472629926719 0 -1 0
343 1 11.21414860414502 24.482158697577393 2.5074123833338726 -1 -2 0
58 1 7.780025632693999 23.062196317351493 3.6556594178227684 0 0 2
139 1 7.641478727004332 19.59455518375238 4.793892967034885 0 -2 2
210 1 10.921123758520537 21.035734213913667 3.2034667376242596 0 2 0
346 1 18.949570503820933 25.205719070348792 4.696051720060253 -1 1 2
446 1 15.983628630463183 20.605666313148422 3.5343761961557796 -1 0 0
224 1 14.667825924903905 23.899547929054474 2.1454555318436164 1 1 0
200 1 13.800187589292939 21.739009848137208 5.854386930736288 1 0 1
385 1 18.612747721549866 20.83478610928469 6.489599017222255 -3 0 1
408 1 24.649042732351447 20.551464193129785 3.811484095572385 -1 0 0
377 1 20.66499301978505 21.68379527151953 3.204149697126668 0 -1 0
250 1 22.377594040350008 23.653680539961965 6.158858445354185 -1 0 0
356 1 -4.219366272730012 -4.235290781168836 8.89655047017188 -1 1 0
188 1 -1.4000290394037536 -0.053352313438430166 10.539817306772447 -1 0 2
493 1 0.743772377821375 -3.6893645833445836 10.156303019904591 2 0 1
37 1 1.493352648214989 -5.138351338385682 7.122070153896121 0 0 1
387 1 2.7738889448590154 0.058817797046118336 9.56907138671486 0 0 0
74 1 6.423979388163161 -1.2284479495779843 10.408820769113442 1 1 1
70 1 6.384668194894061 -4.620824966240701 7.932875372180637 -1 1 0
485 1 3.9811456094170694 -5.159142911151569 10.410917237912617 0 0 1
176 1 6.470972184681134 -5.138627896977708 12.847376871783476 1 1 1
269 1 11.876252132093981 -1.5567176330465764 7.8629539836060545 1 0 2
504 1 9.910033989497725 -1.8415140489029929 12.217360661052306 1 0 0
449 1 11.984889944116993 0.6773846728644584 11.02629067384374 0 1 -1
396 1 9.467064515134766 -5.201225505597494 10.22481664826801 0 1 2
374 1 16.707907130315146 -2.571254878389604 8.00620733626168 0 0 2
26 1 15.72185841591348 0.42652396328364794 10.804055156751447 1 2 -1
480 1 13.972908195373517 -2.9615290856894543 11.195993467982515 -3 0 2
56 1 18.036668760737616 -3.838896272094996 11.465301135743 -2 1 -1
55 1 18.52554094366273 0.8222523648294677 12.96496818603683 0 -2 0
421 1 21.775345238741824 -4.173811387373308 9.543282005398446 1 0 -1
398 1 21.152917100302766 -0.7941129449964333 8.431766350227335 1 0 1
403 1 24.43651442995893 -1.0786405515596744 9.21841174993156 2 1 -2
109 1 21.088659191287096 -2.075443599412245 12.123075391801285 1 -1 1
418 1 25.240093339164318 -1.6681102375039343 12.815435398586079 1 1 -2
242 1 -5.13236689051405 2.331085235198831 8.483191065457792 0 0 0
213 1 -1.2417463975314833 5.361986558532651 10.130917845608993 -1 -1 1
221 1 0.5965144815154773 6.042736503645127 7.191898742027348 1 3 0
407 1 -4.420857371080255 5.634930958420647 10.866761968604374 0 -1 0
479 1 1.0689594736973609 3.0654433500281915 8.77303367683739 -1 -1 -1
355 1 4.445525307604418 6.515942667993125 9.659324326651948 0 0 1
12 1 5.105782649424409 2.9533500665044716 9.974891019459582 -1 1 0
142 1 6.336161322212114 6.545961724647775 12.948958261611095 0 0 1
395 1 8.152581288615474 3.24623056624449 7.122849425961794 0 -1 1
89 1 8.37631856275046 1.6244987867816896 9.99460006343098 0 -1 1
167 1 9.117077090776938 5.32864467348225 10.575617808024221 -1 1 1
36 1 14.227989405026047 5.628052173404827 10.715906203329046 -1 0 1
447 1 17.60571299146092 2.754671115637919 8.778823240478626 0 1 -1
48 1 16.98088789123805 4.564307250026555 12.417837715253075 2 1 0
441 1 22.999873408913825 0.9437284330026792 11.99757869605214 -1 0 1
127 1 20.895803345320683 4.691059191116981 7.151912646649982 -1 1 -1
366 1 21.610754075063966 4.662694321740259 11.197072345019034 1 1 0
18 1 -0.3351731991817877 10.869735905102004 7.208773525523037 0 0 -1
50 1 -2.2712007432761077 8.635512152634513 9.184933581957484 -1 0 0
298 1 0.6927456974135708 11.735686913003214 12.688553069042412 0 -2 0
259 1 -3.7149601276838684 12.00061988686096 10.640984637372982 1 1 -2
425 1 -4.078962361723216 9.161720320110142 12.65131565131853 0 1 0
428 1 5.735158082008443 12.133034910666339 7.547343319965461 -1 1 0
368 1 3.4454080143841352 8.897308739936616 7.0892631764681555 0 0 1
509 1 1.3680907967876923 8.498447542295043 9.918088924120548 0 0 1
7 1 2.3901499496126446 11.535954365016913 9.335479612975162 0 0 1
194 1 5.24867725909691 10.66852157486576 11.90103455915622 -2 -2 2
83 1 11.059980789262674 8.025479209484068 12.867192684131608 0 0 1
174 1 7.758625827060635 9.671738459809493 9.939947438423555 0 -1 -1
17 1 8.632117282105433 7.505567279844696 7.244098343213556 -1 -1 0
439 1 11.489486245346413 8.65416488507187 9.447472135943064 1 0 -1
293 1 9.597576097804799 12.714564076109252 8.43221017389993 0 1 0
84 1 12.519449106215554 12.140542284279537 11.925924406576275 1 0 1
20 1 16.756912507367105 9.352305764876766 11.264937098392952 -2 0 -2
376 1 17.5976874709383 9.890633411214713 7.826990100378323 -1 -1 1
205 1 14.202892758416922 11.436384272718222 9.055105013649142 0 -2 -1
370 1 19.157033250912086 7.070063169947291 9.919716323254638 -1 1 1
79 1 21.989494773920736 8.229819338802622 7.323807364061045 0 0 0
168 1 20.88406836747432 11.656878451065499 8.422639739563403 0 0 1
31 1 25.240438503449013 10.376161979957908 7.871353171556479 -2 1 0
371 1 23.627088760974917 8.884218132408808 10.944729351521019 0 -2 0
114 1 22.64497907243405 12.656446470516972 12.02651133625331 -1 0 -2
189 1 -1.3247978384589651 17.082656768708723 8.00702893828276 2 0 0
135 1 -0.12514548385908686 14.153144852685703 9.885312007024927 0 -1 0
402 1 -3.8291286943141594 16.020261596556118 10.494594917673695 1 1 0
322 1 -4.4877816187316855 19.146608503932313 7.377799804455455 0 0 -1
296 1 -1.810534889322474 14.225723223963811 12.906888743716026 1 1 -1
339 1 5.151471251103761 17.845369048998784 9.37388738286611 1 0 0
440 1 6.930598536919318 14.083888061373155 10.771422010446516 -1 -1 1
123 1 3.525264855021369 14.739252700551528 11.053817873898456 0 0 -1
119 1 1.584951842875439 17.65392268526323 11.953794135322475 2 0 1
113 1 6.789905305449626 17.484252967072393 12.852540902688427 0 -1 -1
468 1 8.23148204121649 15.62235513697798 7.474086014420797 1 0 2
64 1 12.361339963267572 14.898144266204262 7.920607943689741 2 1 0
59 1 8.781030152633338 18.77265225328609 9.416021780484822 0 0 0
148 1 9.893549022166535 15.829489878957105 11.213520344043634 1 0 1
110 1 12.43649291180925 17.924865690546643 9.612948443091959 1 0 -1
369 1 18.29668499678781 17.483150026617874 7.644749720145637 0 -3 -1
40 1 15.746843930401308 15.876368312615995 9.642237916775201 1 -1 1
160 1 15.449108909384048 14.182477087990197 12.88040475487242 2 2 -1
316 1 14.820573529013522 18.652071613370623 12.77577735024762 0 0 -2
420 1 18.96829262477483 16.679165757847134 11.720507939921307 0 -1 1
373 1 24.16069489063501 14.947641881750673 8.287221483551182 -3 0 1
34 1 22.391177183599858 18.537428860400475 8.458763854725552 -1 1 -2
483 1 20.311343178862852 14.92778178288605 9.284815720890185 1 0 -1
491 1 23.03361830023821 16.254599794551094 11.99370105158501 -1 -1 0
156 1 -1.0421560111754014 22.18995936442716 7.879034228874272 -1 0 1
257 1 -2.1614987756034414 19.447233711902534 10.721159244493423 1 -1 0
510 1 -2.929614839344392 22.657331798137523 11.703587632563861 1 -1 0
380 1 -5.002197076997086 22.712053033190582 8.758325998133826 1 -2 -1
253 1 1.629364632898187 19.33365215872773 8.332657513688888 1 0 0
196 1 1.2136779512966207 23.081422267900532 10.622197919564455 1 1 0
384 1 4.105640923597067 21.615688930734304 8.950226257944985 -1 -1 -1
445 1 4.270880438086147 20.24090727663293 12.365656427429249 0 -2 0
404 1 7.53781585188759 22.56805733797677 7.7340859610128945 -1 -1 1
511 1 12.023340583678806 21.3083891917534 8.655619124659221 0 1 -1
394 1 7.364945550013562 21.89334422742953 11.13873627553966 2 0 -1
328 1 19.13458713812563 20.15509709575598 9.926835374507867 0 -1 1
301 1 13.880954315510223 24.54724343074312 9.284685787688232 0 0 0
96 1 18.49724892684888 24.83996134781153 8.605336599454713 -2 0 0
500 1 24.550479781413188 24.955962368518726 12.004449407456727 0 0 2
471 1 24.871739015641744 19.944974704144848 11.290047332921967 1 -2 0
248 1 22.103277165526837 21.905974782457164 9.87140408383693 0 -1 -1
193 1 20.94036491716863 24.179022324537986 12.948323547660019 0 -2 0
102 1 -1.2138018398483545 -3.8611487986398316 13.468660311490835 1 0 -1
309 1 -2.2187404366911205 -1.9547078991864284 17.85058783820501 1 2 -1
486 1 3.5141680763456904 0.5609328115879766 13.984884570986988 0 0 0
99 1 3.1425004905673326 -3.6568048871120844 13.34355531316672 1 1 -2
212 1 1.354624976845371 -5.131663900481615 16.594772425591955 0 0 -2
203 1 4.449319381507564 -3.605145045910092 17.53921945316015 0 -1 1
271 1 1.266289009512965 -0.5662982359955242 16.645054651508175 0 0 1
158 1 7.254272684666738 -1.8547806660207615 14.932978379881172 1 1 2
8 1 10.779204280393806 -4.286705745947115 15.476282915111812 1 -1 1
141 1 11.836710370549511 -0.9231335256685327 17.0217797929612 0 1 0
15 1 15.563758099312757 -1.61606266422182 15.737982764444643 0 1 0
256 1 18.308806932846203 -4.572744998312667 14.832586148989606 -1 0 0
265 1 17.850591149028027 -4.272195169731093 18.526884661853074 0 -1 0
75 1 20.260786075873522 -1.4391356608262549 16.953696502323236 0 0 1
198 1 22.398440202299156 -3.649912389627575 14.960160454570818 -2 1 -1
153 1 24.969001306398848 -1.7000496635420532 16.380668773419547 0 1 -1
476 1 23.314896927809603 -4.1067493471689325 18.600127953888435 -1 -1 -1
498 1 -2.1125516820781263 5.216812729832487 15.169341651460492 1 0 0
365 1 -3.554401696232798 1.9400650151171215 17.30852827874748 -1 -1 0
478 1 -2.3931942693704897 5.2672375108635325 18.969876629062618 1 0 -1
144 1 0.1018549918236964 2.7316440739586474 17.808073911300564 1 2 0
390 1 -0.26753442904822844 1.4476714757041274 13.90430400724308 0 1 -2
67 1 3.3830811630565343 3.985825802471611 13.16529748837783 2 0 -1
294 1 6.90809956715772 3.0782259722874468 13.14490383949497 0 1 -2
397 1 1.38226343486357 5.510216901179788 15.94954635530819 0 2 -1
41 1 5.253601388862386 4.606869001729008 16.331306100883438 -1 1 0
118 1 2.7802778052513215 5.021355504707108 19.030582914111715 -1 -1 -1
450 1 10.384513352251421 1.0644833074167313 14.405567510958333 0 1 0
419 1 7.326737513681213 1.2653887039590161 16.58817974503678 1 1 0
337 1 10.05999730199765 4.690958088730712 14.527689072763879 -1 0 0
413 1 12.143773686121339 2.2594823204843237 18.09848930730258 0 1 0
38 1 13.874071917778718 1.1748147161439082 14.308998529840967 -1 -1 1
76 1 16.492954494649258 6.203006262249659 17.607051876978165 -1 0 1
192 1 14.026618735778737 4.782989286448997 15.325909206771795 1 1 1
273 1 16.796581843062203 2.335541543710831 17.790066801897968 1 1 0
426 1 24.621661401042815 4.40367646371401 18.388424841964884 1 0 1
19 1 20.39505462370167 5.204052586147908 19.116431552846674 0 0 -2
267 1 22.872488705872595 1.1597503177045594 17.19986242227492 -1 0 0
32 1 20.103309066454496 3.7413246757532654 15.206926489942694 -1 -1 1
186 1 -1.5454665671206667 9.277352299114172 17.988308327092486 1 0 -1
172 1 -0.949678161489441 8.172077742570261 14.122607431173789 1 0 -1
448 1 -3.988738040962758 12.040886185984082 15.564926473005437 2 -1 -2
190 1 -5.093546563943259 7.929187656568766 17.034383489175745 0 1 0
282 1 0.6434953145558548 11.646800997657632 16.914431172315886 0 -2 0
278 1 2.5852575715959443 7.876436828448638 13.547757167256767 1 0 0
280 1 4.376866744589119 12.750330420655512 17.84103804100109 2 -1 0
232 1 2.9424138136745643 8.263561062026994 17.31855128148572 0 -1 1
30 1 6.154536540872112 9.380570475581944 18.282342279836715 1 -1 -1
57 1 6.628064413969186 10.638220232478037 15.20166340812024 0 0 -1
475 1 8.668705433514795 7.503884661816032 16.239348693174055 -1 2 0
321 1 12.314023791743267 10.95893377035637 15.09550313707195 -1 0 -1
341 1 17.639814939786152 7.519730916377938 14.483271708645178 -1 1 -1
130 1 16.223703900090623 10.457854616053533 16.468217184107456 0 1 -1
46 1 18.75653519012008 12.913584444207856 17.85358909364242 0 -1 -2
274 1 14.803294098338771 8.928292980043034 19.101778080947156 0 0 -1
512 1 19.24315643448491 11.822867164196914 14.323686147816424 0 -1 0
215 1 20.574476499486547 7.456055571543848 16.84837908380393 -1 0 0
503 1 23.195970253694313 10.003469309975122 14.46399209104928 -1 1 0
484 1 25.17692280689444 11.479142606283052 18.69603059260794 -1 2 1
161 1 -2.8772736360381073 16.036943606837603 16.660470059609377 2 -3 0
465 1 -1.7992662109547197 17.98110491593123 13.724406274279502 0 -1 1
315 1 -5.2572669338268945 14.721601005343008 13.967452041774928 1 0 -2
133 1 1.3469281526170098 19.10213182330264 15.893757496693265 1 0 -1
393 1 1.6808820646927272 15.222887499397071 14.688140555843987 0 1 -1
313 1 4.434647027005488 17.11290215444035 16.51425099133613 0 -1 0
391 1 5.3509486378555255 13.825791529270155 13.994987940409969 0 -1 -1
71 1 1.2108027480435535 15.653824247283978 18.628010063200808 3 2 0
311 1 8.791985565315077 13.478412986172383 13.981661395545434 1 0 0
9 1 7.966735081114416 16.61982232011219 16.513202179825747 -1 -1 1
359 1 12.010028561739308 14.898538734043075 17.814511089785604 -1 2 -1
350 1 11.843887225253361 18.712515827686065 16.34748387516197 0 -1 -1
240 1 9.779576410568172 19.032993218354243 13.116630811774499 -1 0 -1
437 1 12.536007630499704 15.503841563461801 14.208341511303837 1 0 0
411 1 17.309554426112626 16.544643298359617 16.404163309291427 0 -1 -1
444 1 14.872966315790311 13.458646713716753 16.165197404031446 1 0 -2
132 1 22.805380147898166 13.206762217687817 15.895921432582886 -2 -1 -1
378 1 21.08976924101933 17.214834426975656 15.53874365981349 -2 -1 0
304 1 24.55179320217618 18.171854348878536 14.444317393561917 -1 -2 0
207 1 -4.641028004214881 21.742033844521703 14.55157052085458 0 0 1
223 1 -0.5123673517435661 23.125870701077755 15.020963055664781 -1 0 -2
458 1 -2.719126000677049 24.490022306013493 18.273104442602634 2 0 2
335 1 -2.795972844600944 20.763261950391712 17.329501914202908 2 1 -1
69 1 2.6529084156205602 21.526812843553973 18.15252647362923 0 0 0
233 1 3.8385466443371463 23.63408088425084 14.803684901467856 0 0 -1
469 1 6.542360321985303 21.249121374625208 14.837797762603799 1 -1 0
177 1 7.665540089222352 24.775322217564977 16.068617280919355 -1 -1 -1
505 1 10.114615189190438 21.865130648631705 15.335871720866201 -1 0 1
6 1 9.772679505893509 24.670571125141166 18.95547076630319 1 -1 -2
24 1 7.850634546763121 21.130604636757884 18.972529247889412 1 0 -2
291 1 17.88278757704707 22.108054420679807 13.649509601704446 -1 0 -1
3 1 13.150848108833216 23.116642929672793 13.278663143837022 0 -1 0
80 1 15.797847949336518 19.972841045974377 16.064437003433195 0 0 0
225 1 19.12704291423709 20.62804632536865 16.90974740915604 -1 0 1
131 1 13.936991291503752 24.528447223965248 16.54233501495854 -1 -1 1
319 1 24.838560020926074 24.56187582348906 16.21449676783185 -1 0 0
170 1 22.069394233799237 20.57074391538557 13.137671512695217 0 0 0
362 1 21.26129892593781 23.400509903206505 16.77747083758151 0 -1 2
358 1 23.830420499273288 19.325915079841195 17.82833097526954 0 -1 -1
53 1 -2.362000945245879 -3.844316795461378 21.478088712895254 -1 0 0
82 1 -4.820765019415578 -2.257493810004929 24.045724556024926 0 2 0
501 1 6.92805000906805 -5.164728894667472 24.434181657347093 -1 -1 -2
1 1 1.0346042086425244 -2.0300865548148104 20.602039072164107 0 3 0
120 1 2.9557011512913327 -3.844182277605571 23.653318781000962 0 -1 -1
184 1 4.880521797814321 -0.5587635482199147 20.318566435085472 1 0 -1
204 1 4.654678229263803 -0.13998812797725702 24.245045727031638 0 2 1
52 1 11.278811266515088 -0.5640223318651421 24.632649423398973 -1 0 -1
230 1 8.106767237672793 -1.6406503503088259 19.20911045184272 1 0 -2
472 1 8.10053220028018 0.6009607471426746 22.84094061505839 0 1 0
292 1 9.698534099142076 -4.946415949712594 22.674259715694145 1 0 -1
128 1 12.068895838261401 0.12826102820117136 21.03417816880569 1 0 -1
375 1 13.490140812163965 -4.129522292748582 19.70379155343152 -1 1 -1
502 1 18.574147408666143 -0.5652291488833354 23.471624010822016 0 1 -1
412 1 14.513495320355677 -1.8424096715716218 23.735992162871714 2 -1 -1
195 1 15.777317065589983 -0.806169364877455 19.752431961608085 -1 3 1
261 1 17.20103573499645 -4.777332687550213 23.356795391423358 1 2 -2
307 1 22.11138434688561 -0.581987459174373 22.679518033650606 0 1 -1